ITEM: TIMESTEP
0
ITEM: NUMBER OF ATOMS
100
ITEM: BOX BOUNDS rr rr rr
0 0.0001
0 0.0001
0 0.0001
ITEM: ATOMS id type x y z vx vy vz 
916878706 1 1.1787e-07 3.26712e-06 4.32633e-06 -201.04 435.263 -539.456 
356788063 1 5.82056e-06 9.48912e-06 8.91277e-06 -65.2165 -76.5938 -503.327 
1306373345 1 1.79509e-08 8.20225e-06 9.92871e-06 -164.047 -354.826 -174.067 
2112134635 1 9.393e-06 5.91853e-06 7.70841e-06 -351.206 -248.724 68.4709 
395170528 1 8.19944e-06 3.58873e-06 2.77297e-06 -55.3399 70.2132 -796.208 
8501507 1 1.71897e-06 5.10128e-06 2.94546e-06 -93.5549 20.3923 237.639 
1247160877 1 5.16686e-06 6.59778e-06 7.39662e-06 145.596 -92.7259 329.268 
926465891 1 3.4053e-06 7.33668e-06 9.42896e-06 125.369 94.4038 -196.556 
1788691957 1 7.89078e-06 5.08614e-06 1.8597e-06 82.0045 -272.69 -369.286 
1104557442 1 6.38193e-06 7.86652e-06 1.99869e-06 7.89836 -23.89 -178.556 
1241307777 1 1.40535e-05 9.48028e-06 6.75378e-06 83.9913 110.962 -311.421 
78398284 1 1.49211e-05 1.41821e-06 3.24978e-06 198.971 -226.825 -20.4595 
1327810978 1 1.43455e-05 1.64832e-06 8.88524e-06 419.983 -5.06718 236.788 
1065762107 1 1.25717e-05 7.53666e-07 3.16699e-06 64.4629 148.316 -361.947 
1632614725 1 1.90665e-05 6.07822e-07 8.48357e-06 1.7485 -22.4398 -17.3933 
885047462 1 1.33978e-05 3.96891e-06 1.48353e-06 -377.908 93.5403 173.109 
2053250052 1 1.78839e-05 6.31641e-06 6.54142e-06 -288.735 100.765 150.615 
785901187 1 1.38812e-05 3.14529e-06 1.48251e-06 -43.7833 -51.7254 -37.1705 
1286908772 1 1.82327e-05 1.18549e-06 4.31288e-06 220.997 -93.7616 120.892 
1425165700 1 1.13431e-05 7.4549e-06 3.06488e-06 219.973 113.465 -110.855 
372921176 1 2.9219e-05 9.86823e-06 9.27321e-07 123.125 -109.022 -119.135 
1856855407 1 2.3858e-05 1.77944e-07 5.67721e-06 -112.198 23.7736 -202.601 
136202982 1 2.60575e-05 2.18592e-06 8.14049e-06 142.898 -141.947 -21.1095 
67538906 1 2.42824e-05 7.97384e-06 5.02907e-06 -74.9003 -62.1597 180.887 
1161662136 1 2.06752e-05 9.65023e-06 4.0181e-06 41.5988 -212.139 -229.675 
803039486 1 2.85089e-05 5.27167e-06 8.9745e-06 -305.024 226.549 183.57 
494437648 1 2.68569e-05 9.79576e-06 2.40651e-06 -15.9826 74.7254 258.884 
1870760669 1 2.3416e-05 7.79949e-06 5.60472e-06 149.62 340.549 165.68 
607405624 1 2.40515e-05 3.22869e-06 7.12216e-06 123.577 286.839 -315.636 
1593879160 1 2.55294e-05 2.03033e-06 2.38097e-06 -148.197 66.472 -194.954 
1973747038 1 3.68715e-05 4.00383e-06 6.47717e-06 175.318 159.174 -114.81 
1868922616 1 3.11625e-05 2.10893e-06 2.93965e-06 245.013 439.139 1038.39 
1197348985 1 3.61514e-05 9.13017e-06 2.67487e-06 144.158 -167.484 250.755 
1670956254 1 3.69428e-05 5.81606e-06 4.52376e-07 96.4411 -107.092 -157.491 
1288300178 1 3.13604e-05 8.13037e-06 3.22831e-06 -312.065 0.761272 180.84 
1625775846 1 3.44677e-05 8.44755e-06 7.20037e-06 329.383 193.922 -392.916 
1240640146 1 3.23391e-05 2.43393e-06 6.52347e-06 -102.402 3.25969 47.6713 
1001340932 1 3.16032e-05 8.77877e-06 4.41184e-06 -283.686 24.2596 19.733 
1484715840 1 3.50433e-05 2.00061e-06 6.97901e-06 4.21367 -54.6186 -57.2522 
459075808 1 3.1109e-05 8.13281e-06 5.99713e-06 -344.982 -59.4907 120.132 
1184184783 1 4.10219e-05 6.50266e-06 8.20833e-06 -22.3833 -156.436 88.5802 
479436049 1 4.35023e-05 4.33658e-06 8.9363e-06 154.806 56.6546 192.857 
898295237 1 4.3105e-05 9.6474e-06 3.77358e-06 372.001 213.136 -71.6178 
461819807 1 4.80816e-05 5.10218e-06 1.05792e-06 -258.342 67.3026 62.8934 
539852808 1 4.99534e-05 7.67116e-06 4.76354e-06 -394.662 -36.7659 167.701 
466838858 1 4.62675e-05 9.87422e-06 1.46055e-06 275.774 125.541 66.4711 
2022166712 1 4.03797e-05 8.44288e-06 7.15923e-06 38.8105 -322.459 3.51362 
125564401 1 4.95774e-05 3.05076e-06 6.43803e-06 375.598 223.029 201.141 
499257312 1 4.50324e-05 8.1234e-06 1.13874e-06 -27.6793 108.267 24.4939 
1021791340 1 4.23944e-05 1.5821e-06 7.51704e-07 218.166 -196.933 324.119 
366091076 1 5.96205e-05 8.08737e-06 2.81293e-06 -69.3606 19.329 -36.0732 
5004429 1 5.93191e-05 6.39619e-06 8.13321e-07 -166.405 328.737 -239.889 
465945447 1 5.88834e-05 3.60435e-06 5.28026e-06 -144.5 457.916 -93.2996 
76155731 1 5.56225e-05 4.80855e-06 3.18392e-06 -308.513 -692.478 190.184 
1089598608 1 5.54167e-05 8.18636e-06 5.46668e-06 327.268 -5.16142 43.4451 
39738087 1 5.49316e-05 3.97477e-06 9.8407e-06 8.99106 -311.13 8.32205 
604773339 1 5.11862e-05 5.37336e-06 7.92612e-06 -94.7455 -313.198 63.8773 
1966233203 1 5.66802e-05 5.12099e-06 6.54822e-06 58.8406 104.429 453.095 
376665182 1 5.40016e-05 5.2731e-06 8.99872e-06 394.773 143.23 -61.276 
1723397165 1 5.48959e-05 6.40197e-06 3.94281e-07 -70.0214 475.962 128.009 
792310582 1 6.97188e-05 2.93691e-06 6.41415e-06 -339.671 -291.974 17.5679 
979930842 1 6.73337e-05 2.49581e-06 5.74017e-06 221.41 346.325 300.771 
1775033409 1 6.14513e-05 2.2941e-06 3.94242e-06 -213.221 299.338 419.286 
1374239736 1 6.50746e-05 3.79522e-06 7.88663e-08 -247.473 -125.61 -18.2229 
1162688017 1 6.98705e-05 7.33646e-06 3.41674e-06 -99.1324 79.5554 -153.483 
72860714 1 6.73089e-05 8.04029e-06 5.20663e-06 -132.794 576.902 -115.4 
319462104 1 6.73234e-05 3.98724e-06 4.1466e-06 -413.037 137.887 -187.314 
1273783026 1 6.44005e-05 7.31677e-07 4.62317e-06 -512.137 254.053 441.793 
1581970953 1 6.88644e-05 4.23071e-06 1.66765e-06 -231.228 208.793 99.5784 
130164056 1 6.629e-05 2.56234e-06 7.30951e-06 -403.871 -225.04 237.588 
1415930079 1 7.74425e-05 8.84607e-06 6.08553e-06 149.665 -19.2093 580.753 
510301621 1 7.78281e-05 2.54954e-06 1.52393e-06 -269.448 -31.1457 29.4702 
520638656 1 7.54321e-05 5.13149e-06 9.74334e-06 127.098 -306.154 -336.699 
31242835 1 7.26184e-05 6.78087e-06 6.11821e-08 -129.283 98.9389 303.171 
207217062 1 7.45969e-05 3.87388e-06 4.37678e-06 270.37 297.534 -301.116 
782899581 1 7.76099e-05 8.02123e-06 6.56184e-07 72.1916 3.7093 -54.092 
1755749363 1 7.49912e-05 1.03824e-06 4.4151e-06 -169.099 -190.047 -16.0834 
673837032 1 7.92622e-05 4.03597e-06 1.66488e-07 65.7448 -228.456 -247.988 
410270271 1 7.411e-05 6.85039e-06 5.36402e-06 -157.545 96.8736 -294.979 
393302546 1 7.97617e-05 5.74705e-06 9.30676e-06 -612.383 144.65 -58.6552 
725087150 1 8.97059e-05 2.00267e-06 9.84831e-06 249.532 -517.367 270.232 
1782885273 1 8.28471e-05 5.46208e-06 3.3981e-06 674.843 -191.493 -117.927 
1135173337 1 8.96581e-05 4.51065e-06 2.80987e-06 62.6408 -244.149 161.261 
626445048 1 8.60431e-05 8.24622e-06 3.38165e-06 180.232 -43.985 -90.7901 
1115649494 1 8.93966e-05 3.8488e-06 1.79197e-07 -432.298 20.766 344.927 
1289613566 1 8.26641e-05 6.48592e-06 7.07198e-07 6.35708 -101.534 -267.448 
870743986 1 8.9938e-05 3.50015e-06 2.78493e-06 196.689 -151.807 57.4481 
1110528660 1 8.80182e-05 6.0785e-07 1.6165e-06 -406.958 -174.255 233.667 
276175794 1 8.67637e-05 9.74155e-06 9.31617e-06 -426.142 -178.833 88.5733 
1109278367 1 8.66162e-05 6.92387e-07 1.47326e-07 139.224 410.318 153.746 
663170807 1 9.4484e-05 8.05963e-06 8.78272e-06 -119.464 -206.175 -29.1387 
1454964533 1 9.45705e-05 3.40313e-07 9.21535e-06 125.103 80.227 109.388 
1211503440 1 9.38813e-05 2.46875e-06 1.34916e-06 -104.615 -299.822 639.111 
924378288 1 9.78826e-05 6.1797e-06 3.53986e-06 358.699 -103.785 115.251 
626835850 1 9.9566e-05 9.49328e-06 1.11103e-06 -56.4713 -22.6631 270.341 
1509835929 1 9.97007e-05 8.5169e-06 5.07128e-07 -106.791 -460.774 -5.75455 
883135673 1 9.06309e-05 1.27438e-06 9.81083e-06 0.528953 10.4669 -187.803 
211684289 1 9.23503e-05 5.43876e-06 4.79171e-06 304.599 322.193 12.435 
727415503 1 9.02428e-05 4.95557e-06 6.41006e-07 220.357 52.8884 525.942 
1905901935 1 9.73543e-05 5.37722e-06 8.6457e-06 -180.27 -108.659 -3.87911 
427801254 1 8.47836e-06 1.65937e-05 5.14179e-06 -569.436 88.6061 -133.303 
1368843906 1 5.83817e-06 1.31352e-05 7.44833e-06 -311.713 208.393 -174.351 
525450363 1 9.92883e-07 1.36849e-05 2.17716e-06 311.52 299.426 192.216 
561150606 1 1.93123e-06 1.16738e-05 7.29273e-06 115.513 -472.945 -257.932 
35074354 1 3.2995e-08 1.60508e-05 9.41709e-06 157.791 -600.748 -365.301 
1667319641 1 9.47501e-06 1.4124e-05 1.74689e-06 -60.1662 -279.159 147.861 
1936293658 1 9.38919e-06 1.10859e-05 5.61361e-06 88.9327 146.357 -73.9867 
1534225457 1 5.8245e-06 1.76486e-05 2.94389e-06 -228.232 328.948 73.4051 
1137022973 1 6.78411e-06 1.58633e-05 9.18569e-06 -55.9562 79.9036 -262.831 
612192365 1 5.81834e-06 1.55447e-05 3.61037e-06 -682.943 127.38 76.9314 
1435342844 1 1.52404e-05 1.49498e-05 2.02215e-06 -140.379 -467.458 252.283 
131940435 1 1.51522e-05 1.97875e-05 8.65766e-06 322.224 23.9217 38.835 
1553255858 1 1.85844e-05 1.91584e-05 2.71004e-06 -52.8855 -145.888 329.568 
363304009 1 1.56629e-05 1.00063e-05 6.60331e-06 288.71 -102.671 -106.079 
1129506927 1 1.96385e-05 1.51638e-05 6.02846e-06 -139.211 -110.093 -5.72796 
915131110 1 1.48367e-05 1.00546e-05 2.00885e-06 -33.6089 -386.263 -36.3402 
1757477329 1 1.3314e-05 1.20801e-05 6.5504e-06 131.786 149.757 -296.938 
2064262483 1 1.6179e-05 1.17623e-05 7.14363e-07 -420.855 154.558 -180.676 
1420099299 1 1.9827e-05 1.25679e-05 6.16052e-06 278.557 434.603 219.002 
1194347964 1 1.40872e-05 1.85853e-05 5.87992e-06 88.3584 -70.8863 -286.656 
1916029790 1 2.9916e-05 1.72155e-05 8.80309e-06 406.745 -316.873 145.715 
1990583644 1 2.52626e-05 1.9528e-05 8.55224e-06 637.301 -74.8138 45.6757 
2027297328 1 2.90648e-05 1.20208e-05 7.1037e-06 -221.034 -424.151 236.229 
15893054 1 2.71536e-05 1.43004e-05 7.98493e-06 147.521 -346.445 -105.437 
781509480 1 2.78254e-05 1.97826e-05 3.16434e-06 10.1304 107.019 -227.06 
1960489129 1 2.22828e-05 1.80557e-05 7.06927e-06 107.915 119.712 -443.063 
246890879 1 2.40933e-05 1.24543e-05 3.71469e-06 -223.794 436.507 -152.972 
1515773356 1 2.16723e-05 1.93931e-05 3.48867e-06 -84.4934 202.695 120.719 
102337719 1 2.75998e-05 1.80595e-05 1.67854e-07 -11.4467 96.9823 192.136 
425528795 1 2.17353e-05 1.15935e-05 2.49581e-06 183.505 114.849 210.477 
1725102746 1 3.39593e-05 1.42393e-05 3.37727e-06 131.553 -116.273 47.9077 
1164836228 1 3.43583e-05 1.58728e-05 1.15347e-06 32.8533 -434.104 -422.924 
1307014304 1 3.70963e-05 1.20886e-05 6.1423e-06 54.3873 170.115 315.37 
2083367209 1 3.51061e-05 1.52774e-05 5.81989e-07 131.32 191.952 191.453 
1205541070 1 3.74118e-05 1.76863e-05 7.53074e-06 382.235 -526.225 -112.109 
241167071 1 3.85903e-05 1.57354e-05 8.015e-06 476.317 -143.741 -211.833 
1470431544 1 3.69323e-05 1.22225e-05 8.68634e-06 193.251 199.347 102.075 
1763995380 1 3.79829e-05 1.13066e-05 4.887e-06 112.023 -300.581 122.913 
649904462 1 3.07737e-05 1.6776e-05 6.17013e-06 -143.198 -276.886 -114.25 
1365998495 1 3.4756e-05 1.03104e-05 8.58382e-06 14.3057 267.217 134.135 
1967941618 1 4.83539e-05 1.30993e-05 3.38653e-06 263.977 -98.4532 284.68 
1710968887 1 4.06774e-05 1.32553e-05 8.58412e-07 84.2146 167.948 105.923 
1581978063 1 4.19403e-05 1.26363e-05 7.33294e-06 299.374 70.261 -127.798 
756729297 1 4.12549e-05 1.23148e-05 6.46916e-06 -98.3401 194.92 -212.022 
1780242715 1 4.68455e-05 1.17461e-05 9.48214e-06 -91.1528 -158.763 113.851 
917247541 1 4.19101e-05 1.41662e-05 1.87568e-06 -360.192 -211.337 -34.1955 
761880700 1 4.1686e-05 1.00364e-05 7.95072e-06 65.3872 250.184 -360.274 
1936998904 1 4.41563e-05 1.66366e-05 5.88753e-06 -190.084 -177.616 -542.361 
75014086 1 4.77231e-05 1.10577e-05 5.70701e-06 -117.486 115.81 -209.642 
600355121 1 4.76025e-05 1.43458e-05 1.70516e-07 198.117 -96.5566 -288.395 
1783025444 1 5.5602e-05 1.94865e-05 1.00835e-06 162.312 111.614 271.34 
1091950876 1 5.45916e-05 1.60492e-05 7.8476e-06 412.703 545.765 -261.498 
1601525458 1 5.57941e-05 1.54772e-05 5.26656e-06 -226.451 196.741 -268.854 
1964670522 1 5.94494e-05 1.61449e-05 1.61562e-06 -188.58 101.717 -45.19 
652124056 1 5.38929e-05 1.57822e-05 5.24376e-07 302.647 394.162 404.968 
1153239411 1 5.33909e-05 1.48242e-05 2.32227e-07 -18.424 -128.509 12.3642 
290882335 1 5.65527e-05 1.95591e-05 4.30477e-07 231.077 -92.7664 80.5009 
1944897240 1 5.19227e-05 1.01821e-05 5.27304e-06 -76.873 -114.586 37.0223 
1734084951 1 5.14566e-05 1.58223e-05 6.72601e-06 16.84 -61.7701 -183.491 
872213675 1 5.25955e-05 1.46857e-05 7.2823e-06 -96.6868 -252.915 -175.158 
976141073 1 6.18256e-05 1.00374e-05 6.87789e-06 416.004 -274.559 51.993 
1624580851 1 6.30905e-05 1.12798e-05 7.41605e-06 -168.975 419.993 176.972 
1499928389 1 6.48827e-05 1.41723e-05 4.87072e-06 -34.6374 446.027 364.599 
1521829890 1 6.79726e-05 1.00451e-05 4.8293e-06 -356.718 -80.9702 -48.7613 
453649252 1 6.63852e-05 1.48115e-05 3.92557e-06 -1.51184 -166.248 266.194 
243679090 1 6.47779e-05 1.36973e-05 3.98348e-06 -41.7053 -71.024 -268.406 
166767541 1 6.81081e-05 1.92046e-05 7.27475e-07 150.408 -288.848 92.2359 
1428337596 1 6.39752e-05 1.3779e-05 6.73371e-06 -22.8684 8.22313 314.326 
77993842 1 6.73198e-05 1.54858e-05 8.77647e-06 -14.4187 36.8788 -173.985 
1960432826 1 6.59205e-05 1.04534e-05 5.25411e-06 -480.766 132.432 440.083 
990428299 1 7.2196e-05 1.71023e-05 2.78933e-07 -27.6731 -116.003 -389.859 
393887507 1 7.39575e-05 1.85691e-05 5.93386e-06 398.789 -79.057 -80.2964 
908200265 1 7.5273e-05 1.66627e-05 7.3602e-06 -6.73695 57.5039 136.467 
1401128879 1 7.39699e-05 1.58632e-05 1.11871e-06 162.647 188.996 -243.709 
101410162 1 7.52618e-05 1.4907e-05 6.45209e-06 2.74102 -267.923 -177.534 
196725492 1 7.49705e-05 1.68911e-05 2.06314e-06 78.9236 190.871 -65.8163 
126191159 1 7.96215e-05 1.43452e-05 2.43145e-06 -9.8633 54.3311 476.452 
901780189 1 7.53109e-05 1.20649e-05 4.19447e-06 -228.768 -23.9451 451.981 
2025903123 1 7.91751e-05 1.12766e-05 9.44646e-06 183.054 73.363 -144.021 
935303828 1 7.45253e-05 1.57131e-05 4.2758e-06 186.898 118.514 -160.957 
1392627122 1 8.30811e-05 1.98038e-05 2.96638e-06 -221.238 130.87 125.051 
1115771866 1 8.09865e-05 1.90493e-05 8.77787e-06 -38.2916 66.1075 306.063 
2008522462 1 8.71958e-05 1.24334e-05 7.08193e-06 304.567 20.3794 -342.325 
817412430 1 8.81988e-05 1.85941e-05 4.3716e-06 357.526 -116.351 -1.01947 
250805119 1 8.09048e-05 1.47658e-05 6.71406e-06 165.375 -382.56 -425.962 
888743471 1 8.63623e-05 1.33315e-05 1.81156e-06 205.926 154.762 80.8059 
966316700 1 8.53604e-05 1.08515e-05 8.30741e-07 -84.3216 378.207 105.714 
75134607 1 8.97295e-05 1.36623e-05 8.32379e-06 90.6482 345.204 -146.955 
1452535510 1 8.94263e-05 1.10702e-05 4.59812e-06 260.519 20.2809 -207.779 
1436698924 1 8.73406e-05 1.08238e-05 5.68359e-06 123.883 -23.396 -177.836 
373067473 1 9.59459e-05 1.39458e-05 1.52437e-06 132.965 211.209 -20.3373 
1091405810 1 9.31505e-05 1.40566e-05 6.27633e-06 153.826 40.7371 -81.1262 
1913283212 1 9.65554e-05 1.67993e-05 3.12164e-06 -101.103 -123.686 565.431 
662096099 1 9.59859e-05 1.23334e-05 6.68786e-06 166.086 -244.66 146.025 
973500014 1 9.70794e-05 1.13117e-05 1.7085e-06 50.51 92.4498 179.143 
129697556 1 9.51768e-05 1.26201e-05 1.39055e-07 139.69 -24.1033 -62.0356 
1747776920 1 9.96656e-05 1.79327e-05 8.72393e-06 320.9 324.145 -2.53361 
1739803654 1 9.76338e-05 1.33736e-05 6.83322e-06 -422.275 83.5178 -348.315 
884508298 1 9.63632e-05 1.18151e-05 7.1476e-06 247.09 273.271 -190.318 
1569888725 1 9.7476e-05 1.16157e-05 8.02054e-06 11.5898 -18.7588 -35.0181 
986587625 1 7.30655e-06 2.55506e-05 7.73027e-06 208.535 320.094 -347.524 
1909037634 1 3.15547e-06 2.04999e-05 8.50355e-06 12.7497 587.258 47.404 
484749007 1 3.81111e-06 2.26286e-05 8.05825e-06 -93.5347 -191.122 83.507 
2012405222 1 6.15154e-07 2.14048e-05 1.69843e-06 199.832 -144.932 157.267 
209069595 1 8.98174e-06 2.6676e-05 1.19358e-06 500.408 138.77 -221.537 
1077791745 1 2.98296e-06 2.27599e-05 4.55584e-06 374.711 -223.565 -205.557 
1608693640 1 1.33736e-06 2.02146e-05 8.61605e-06 -41.944 -189.19 106.46 
1196654351 1 9.62227e-06 2.19059e-05 4.71258e-06 49.7372 122.428 -47.0663 
1230151522 1 7.87545e-06 2.13627e-05 7.84884e-06 -266.292 -26.6788 -55.9379 
1926827868 1 4.95294e-06 2.67767e-05 4.54689e-06 -54.5592 42.6541 -57.1831 
116350696 1 1.11729e-05 2.82525e-05 7.96228e-06 69.3386 209.409 -163.961 
351406435 1 1.21746e-05 2.80303e-05 3.06257e-06 326.271 2.4267 222.84 
1336157184 1 1.60139e-05 2.95486e-05 6.13759e-07 -115.65 -281.683 103.223 
1364359265 1 1.39361e-05 2.40663e-05 6.22872e-06 -55.8283 683.667 -171.775 
1326706521 1 1.6739e-05 2.3653e-05 4.64254e-06 -162.183 -274.84 -249.744 
492048484 1 1.44246e-05 2.61686e-05 1.91067e-06 -286.141 -122.223 241.351 
923468242 1 1.21717e-05 2.19175e-05 8.06509e-06 267.741 -91.0389 45.7501 
122836904 1 1.25198e-05 2.58584e-05 4.7141e-06 52.1242 -109.677 123.119 
1369207132 1 1.27745e-05 2.14499e-05 3.9818e-06 -20.0007 -166.051 162.434 
1051004032 1 1.47987e-05 2.99893e-05 4.86353e-06 43.5002 269.52 122.848 
470752604 1 2.69741e-05 2.40796e-05 5.60844e-06 303.418 43.8689 259.507 
1800134646 1 2.1229e-05 2.63669e-05 9.67551e-06 257.142 -144.016 -65.085 
1857663188 1 2.50007e-05 2.96298e-05 6.96243e-06 96.7169 -111.073 9.89877 
855276289 1 2.19532e-05 2.81559e-05 1.14145e-07 -85.4376 -516.325 -340.83 
1461382039 1 2.13556e-05 2.76802e-05 3.26178e-06 57.4411 -22.3064 60.2387 
121657145 1 2.59784e-05 2.40561e-05 9.36599e-07 -130.359 327.367 -103.701 
1926657132 1 2.07217e-05 2.98284e-05 3.61233e-06 -218.223 -143.863 622.51 
1017680884 1 2.89784e-05 2.19556e-05 6.69178e-06 44.6918 -72.7564 -134.722 
267620204 1 2.57476e-05 2.25687e-05 5.73835e-06 274.453 44.4951 709.036 
1983589713 1 2.98575e-05 2.55348e-05 7.77476e-06 298.988 -158.105 13.9531 
1573264328 1 3.57995e-05 2.52036e-05 9.39103e-06 -181.231 245.164 -196.753 
373016270 1 3.28446e-05 2.50928e-05 3.88008e-06 -562.411 -10.6517 -516.032 
745270180 1 3.4841e-05 2.94108e-05 1.65435e-06 -329.732 177.293 -99.6556 
608131688 1 3.79196e-05 2.24765e-05 7.42115e-06 -94.2425 -29.7783 -121.32 
160182289 1 3.21333e-05 2.5513e-05 1.38287e-06 -227.147 82.0861 -66.1736 
1597460589 1 3.91228e-05 2.59245e-05 8.35311e-06 227.385 141.843 -101.378 
1619370794 1 3.64726e-05 2.654e-05 6.37776e-06 21.1859 192.349 -297.063 
1957225338 1 3.56217e-05 2.63512e-05 5.94408e-06 95.7484 30.2591 -75.1096 
602849625 1 3.85439e-05 2.83005e-05 1.57028e-06 344.67 77.5133 -218.921 
251865461 1 3.95241e-05 2.39844e-05 8.80654e-06 -138.081 395.017 -252.966 
1578376244 1 4.42868e-05 2.84478e-05 6.02425e-06 332.025 -56.1761 -186.589 
44203358 1 4.9346e-05 2.60118e-05 9.4302e-06 141.287 -244.969 -251.195 
513310123 1 4.24188e-05 2.21228e-05 4.8213e-06 278.268 -317.312 245.066 
1863869858 1 4.82209e-05 2.20269e-05 8.97185e-06 484.02 -188.573 -146.511 
691552969 1 4.147e-05 2.33923e-05 4.56722e-06 -241.423 247.881 -304.957 
26118097 1 4.96336e-05 2.46711e-05 1.22212e-06 -310.23 333.345 304.193 
529858954 1 4.58336e-05 2.27764e-05 2.11222e-06 -314.421 -53.5148 -293.038 
1084017491 1 4.40961e-05 2.4216e-05 3.10658e-06 -93.8741 -298.756 340.893 
395378524 1 4.07825e-05 2.13521e-05 1.63385e-07 -157.614 -162.747 -258.884 
632364548 1 4.65088e-05 2.49523e-05 7.11137e-06 26.2284 -93.6307 -61.6507 
1808799332 1 5.33246e-05 2.24123e-05 1.46106e-06 16.5882 -108.363 766.997 
873146892 1 5.18968e-05 2.76373e-05 9.93985e-06 -382.044 61.2839 -79.4754 
1235115366 1 5.70591e-05 2.77068e-05 3.73329e-06 12.871 -383.806 530.32 
795740852 1 5.19998e-05 2.44875e-05 4.13391e-06 408.334 -356.118 -466.522 
617080237 1 5.07545e-05 2.79659e-05 2.1266e-06 43.1975 150.272 -79.9412 
385007718 1 5.19684e-05 2.65541e-05 4.62843e-06 -21.0855 66.8263 -418.497 
128156949 1 5.19608e-05 2.06933e-05 1.77738e-06 308.39 -221.453 129.687 
841172941 1 5.37101e-05 2.91187e-05 9.70689e-06 -44.2837 20.5419 -17.0682 
369299887 1 5.85454e-05 2.74936e-05 5.33157e-06 227.188 134.632 85.1558 
1450719667 1 5.43249e-05 2.79945e-05 8.58446e-06 -77.2249 374.22 242.718 
835441009 1 6.14378e-05 2.5683e-05 8.02281e-06 241.03 122.143 13.7615 
1968717747 1 6.61835e-05 2.98478e-05 8.39215e-06 105.253 143.928 -97.9679 
1317270220 1 6.69866e-05 2.51338e-05 8.65875e-06 -575.525 -132.061 150.809 
108325178 1 6.57273e-05 2.7894e-05 2.57653e-07 -314.634 -29.4263 -515.779 
480789339 1 6.76517e-05 2.39226e-05 9.64786e-06 135.581 -172.693 350.109 
141327601 1 6.68671e-05 2.3814e-05 7.44679e-07 -353.293 473.694 -330.35 
113967979 1 6.64335e-05 2.93487e-05 4.50181e-06 138.703 -269.373 -80.5429 
1783303309 1 6.66092e-05 2.85424e-05 6.89467e-06 315.227 -375.469 195.371 
1963414907 1 6.50484e-05 2.5825e-05 4.44078e-06 226.532 -42.9405 -3.15036 
110515742 1 6.18707e-05 2.8267e-05 2.58222e-06 -289.485 -477.462 -65.538 
1887321363 1 7.32876e-05 2.46157e-05 1.53856e-06 96.9731 -90.3487 -20.2182 
1384820278 1 7.98874e-05 2.10452e-05 3.9613e-06 84.6124 148.887 -421.616 
842641384 1 7.16098e-05 2.1574e-05 7.79032e-06 32.9668 -115.057 -179.726 
59076950 1 7.18616e-05 2.35644e-05 9.20545e-06 0.971297 326.8 -13.6655 
1573296732 1 7.83758e-05 2.60457e-05 3.80623e-06 145.908 79.9263 -41.216 
1290992513 1 7.9213e-05 2.28245e-05 1.32142e-06 411.352 438.639 321.877 
331605370 1 7.15247e-05 2.14212e-05 3.68161e-07 106.969 156.98 368.471 
1442862992 1 7.317e-05 2.55762e-05 1.67197e-06 -110.449 -382.56 -277.115 
1336926026 1 7.58905e-05 2.91552e-05 6.38397e-07 -115.215 358.64 142.754 
1774147961 1 7.48819e-05 2.31259e-05 7.94796e-07 160.215 -233.334 -612.161 
1847663033 1 8.45567e-05 2.76896e-05 4.36933e-06 -40.2419 155.86 -100.616 
45687020 1 8.92327e-05 2.02908e-05 9.79002e-06 -18.6824 -134.041 -202.923 
1608396405 1 8.77674e-05 2.43938e-05 1.09895e-06 190.635 -287.64 546.08 
1333097014 1 8.05436e-05 2.35493e-05 7.98388e-06 8.01848 -4.15448 442.76 
2040960029 1 8.08183e-05 2.59353e-05 2.92622e-06 -478.129 104.966 79.028 
1919106442 1 8.69349e-05 2.27604e-05 2.65177e-06 292.597 1.19804 -67.5544 
1323158983 1 8.00723e-05 2.7926e-05 5.60732e-06 -63.0982 10.9409 -366.325 
841630853 1 8.40192e-05 2.77102e-05 1.58123e-06 270.691 -297.449 546.488 
1645890022 1 8.76309e-05 2.27948e-05 4.75256e-06 450.953 371.964 67.808 
200511220 1 8.5564e-05 2.2058e-05 1.36202e-07 202.963 -609.593 103.037 
1347447771 1 9.16848e-05 2.59449e-05 5.48404e-06 393.952 3.21374 184.995 
1587424254 1 9.81836e-05 2.51724e-05 9.57543e-06 -358.761 27.3479 -196.037 
443129290 1 9.77267e-05 2.94307e-05 7.45666e-06 94.5933 162.46 93.2194 
798408379 1 9.25294e-05 2.27278e-05 1.0673e-07 64.7438 -116.951 71.9952 
607807860 1 9.16692e-05 2.5336e-05 5.48639e-06 -342.584 263.562 184.27 
993592294 1 9.01201e-05 2.83718e-05 4.50614e-06 174.385 -135.367 -28.9498 
1500223964 1 9.04311e-05 2.96343e-05 7.34603e-06 -65.9473 -166.43 -83.8295 
690301574 1 9.55992e-05 2.45839e-05 8.01959e-07 -98.6437 -74.9105 -35.5598 
747980953 1 9.89841e-05 2.73459e-05 8.52523e-07 -102.521 104.049 398.947 
712923180 1 9.8847e-05 2.30191e-05 5.15431e-06 -94.0526 33.568 -289.613 
25462793 1 9.60077e-06 3.03903e-05 5.87148e-06 -286.897 239.453 -591.222 
38872228 1 3.31358e-06 3.79112e-05 5.80646e-06 236.279 -215.149 10.7144 
2119809304 1 4.54306e-07 3.56711e-05 4.5697e-06 79.5902 -230.627 -82.0471 
2125776807 1 8.68787e-06 3.06292e-05 4.19869e-06 -189.261 466.169 -227.608 
1615821564 1 5.82911e-06 3.267e-05 4.48128e-07 75.4035 273.741 352.745 
748389265 1 9.1367e-06 3.33142e-05 6.82863e-06 -88.0599 24.3168 298.032 
1645903435 1 7.90424e-06 3.35961e-05 9.22996e-06 -109.077 -39.475 288.591 
1737781616 1 8.99719e-06 3.87176e-05 5.88332e-06 41.6829 -79.8806 -98.675 
1355925557 1 2.99942e-06 3.18258e-05 7.82284e-07 213.426 -411.414 169.933 
728810232 1 1.50612e-07 3.96669e-05 5.5582e-06 84.9823 -6.3071 -150.453 
143315873 1 1.62035e-05 3.98934e-05 3.88027e-06 251.512 228.131 41.3329 
1462915170 1 1.93313e-05 3.71608e-05 1.26639e-06 -393.155 -203.686 -375.977 
1897534853 1 1.38424e-05 3.5205e-05 5.25583e-06 325.149 -262.035 56.3772 
1106065019 1 1.49772e-05 3.42927e-05 2.21388e-06 345.618 263.085 104.213 
1958668584 1 1.95498e-05 3.01944e-05 9.51135e-06 209.422 -102.625 268.419 
1120866181 1 1.92472e-05 3.78634e-05 4.0397e-06 -152.321 79.5095 -335.433 
166195769 1 1.65389e-05 3.27934e-05 4.62508e-06 -148.841 56.1341 -50.4993 
573402913 1 1.46233e-05 3.78481e-05 1.99708e-06 -95.9288 -135.206 -326.313 
8083122 1 1.01215e-05 3.88625e-05 1.34191e-06 85.9755 -162.589 -130.101 
1847520060 1 1.44143e-05 3.28904e-05 4.73875e-06 152.551 216.438 346.032 
373511740 1 2.20896e-05 3.40886e-05 6.51018e-06 -104.064 115.088 -50.4144 
672519518 1 2.7228e-05 3.00508e-05 7.95652e-07 554.974 283.756 86.8373 
499041651 1 2.99595e-05 3.85181e-05 1.57237e-07 -8.90847 -82.6028 353.458 
1305492076 1 2.43298e-05 3.54541e-05 9.03503e-06 -214.404 -112.052 333.069 
1270627820 1 2.77187e-05 3.95049e-05 3.92034e-06 -120.34 234.095 87.657 
553057505 1 2.60576e-05 3.16029e-05 9.40676e-06 205.073 -263.236 -31.7304 
1164484206 1 2.16483e-05 3.83715e-05 3.66705e-07 282.651 -361.439 -126.876 
228898205 1 2.98462e-05 3.58079e-05 3.98602e-06 245.433 66.2265 -299.926 
536587562 1 2.58573e-05 3.7565e-05 2.82104e-06 51.5037 576.03 -369.189 
1939280187 1 2.22699e-05 3.09023e-05 2.36404e-06 -375.823 140.299 60.5396 
1664127250 1 3.23917e-05 3.33375e-05 4.80505e-06 333.333 619.615 -182.892 
607068857 1 3.4066e-05 3.72684e-05 1.36694e-06 -87.1185 -2.17793 -36.1054 
157248126 1 3.46347e-05 3.02307e-05 7.60155e-08 79.2142 51.4821 -316.243 
1391341666 1 3.03868e-05 3.5799e-05 5.45368e-06 305.788 119.427 192.484 
1936355387 1 3.34945e-05 3.76758e-05 7.66919e-06 -295.768 135.571 215.022 
1115545876 1 3.60077e-05 3.28643e-05 6.50516e-06 179.455 205.13 -541.133 
402438746 1 3.52519e-05 3.82475e-05 6.70554e-06 -143.365 -3.70995 186.544 
193048791 1 3.83553e-05 3.96192e-05 1.30619e-06 -194.509 97.9405 36.1529 
225765877 1 3.11612e-05 3.44509e-05 9.54531e-06 126.193 10.1574 328.577 
66569081 1 3.65611e-05 3.69673e-05 8.23073e-06 239.142 345.865 256.192 
442246780 1 4.07133e-05 3.75278e-05 8.51117e-06 -123.651 269.847 238.03 
2114402453 1 4.68495e-05 3.75933e-05 8.65338e-06 -86.1561 88.3905 59.3717 
863391196 1 4.66007e-05 3.4005e-05 5.97726e-06 -149.657 348.87 -155.69 
410043557 1 4.8093e-05 3.95241e-05 6.07139e-06 36.0236 -235.37 -249.03 
1390184916 1 4.3539e-05 3.19463e-05 5.31834e-06 35.4348 -138.403 -12.2244 
1061561865 1 4.26225e-05 3.34046e-05 3.85775e-06 -85.0833 142.687 -142.224 
1252429567 1 4.38049e-05 3.60981e-05 3.62043e-06 190.196 -47.4073 209.1 
1521194812 1 4.66384e-05 3.56235e-05 9.02492e-06 -252.684 361.692 175.712 
1226540273 1 4.84702e-05 3.73387e-05 6.77854e-06 58.1036 139.422 71.8031 
1561210479 1 4.78244e-05 3.06068e-05 2.60241e-06 -51.326 -61.9272 -111.251 
1795655377 1 5.08662e-05 3.13192e-05 9.2049e-06 306.504 327.022 56.3346 
1320739020 1 5.46735e-05 3.29463e-05 5.19134e-06 548.495 -224.086 281.366 
783819578 1 5.88807e-05 3.01546e-05 7.31493e-06 -62.7994 470.493 -507.642 
1187216246 1 5.70238e-05 3.19371e-05 1.48115e-06 197.591 -213.784 270.733 
739159771 1 5.25305e-05 3.78514e-05 3.78823e-06 142.508 310.641 -183.7 
1118936192 1 5.93601e-05 3.832e-05 3.90654e-07 87.5657 -1112.48 -235.417 
1392271546 1 5.83432e-05 3.00946e-05 7.46115e-06 150.372 16.4522 102.55 
682846131 1 5.09851e-05 3.64439e-05 9.42019e-06 -242.228 158.323 127.989 
263803904 1 5.96032e-05 3.15077e-05 1.54297e-07 205.027 -267.546 -184.511 
889830166 1 5.25129e-05 3.17793e-05 2.76422e-06 -52.1328 170.137 277.203 
1931823003 1 6.96696e-05 3.71275e-05 6.74502e-07 -187.485 59.2146 -286.111 
551405136 1 6.78864e-05 3.83405e-05 4.02602e-06 -4.69287 246.66 -3.08355 
337653623 1 6.53411e-05 3.16633e-05 5.80619e-06 75.1502 -497.738 167.157 
1515262127 1 6.68854e-05 3.46906e-05 1.39407e-06 149.215 -203.006 -120.034 
33219585 1 6.46621e-05 3.90172e-05 5.36315e-06 213.776 143.712 19.041 
49351860 1 6.66402e-05 3.29997e-05 6.7834e-07 -16.9457 120.444 -263.513 
528637324 1 6.86462e-05 3.16356e-05 7.20216e-07 339.825 -99.3035 5.89279 
1997538687 1 6.63289e-05 3.2311e-05 9.88867e-06 144.864 -594.522 198.23 
808339348 1 6.93067e-05 3.99562e-05 6.55573e-06 6.71582 22.0715 -93.8281 
1280156534 1 6.01883e-05 3.31375e-05 5.45208e-06 593.641 -86.8367 -255.976 
784672694 1 7.19828e-05 3.6354e-05 8.5858e-06 136.16 194.964 -142.271 
586314854 1 7.17515e-05 3.02343e-05 3.71629e-06 -277.395 -426.936 212.323 
1357180603 1 7.92235e-05 3.80545e-05 6.06323e-06 -48.9348 -145.202 100.859 
165676643 1 7.66028e-05 3.81498e-05 6.03727e-06 168.475 277.18 -136.871 
387507920 1 7.10781e-05 3.39135e-05 8.33531e-06 331.814 -328.806 130.151 
202336368 1 7.31223e-05 3.57837e-05 5.35068e-06 169.304 114.555 305.203 
142029876 1 7.52176e-05 3.59063e-05 1.69991e-06 -226.595 -191.587 -28.0816 
1914443098 1 7.20175e-05 3.76137e-05 6.5587e-06 203.469 306.343 -184.919 
501192545 1 7.45339e-05 3.2251e-05 3.78272e-06 -5.69629 240.846 272.973 
582246736 1 7.6414e-05 3.0014e-05 7.42282e-07 -23.3885 217.01 171.894 
132588790 1 8.7115e-05 3.72546e-05 3.24728e-07 357.09 54.931 -279.533 
254743506 1 8.47108e-05 3.4409e-05 2.32129e-06 48.5031 245.444 -189.039 
1053749167 1 8.01005e-05 3.97057e-05 4.91225e-07 122.045 94.1173 -330.929 
1463372599 1 8.08246e-05 3.95167e-05 2.39081e-06 197.203 -316.986 204.08 
184288357 1 8.61333e-05 3.76869e-05 7.61238e-06 -82.6967 -42.6441 183.51 
1863024531 1 8.32706e-05 3.75743e-05 6.13652e-06 -380.292 -224.79 547.68 
42186193 1 8.52944e-05 3.12674e-05 4.04848e-06 221.195 162.132 210.347 
605364337 1 8.46925e-05 3.65725e-05 6.88188e-06 20.9168 249.091 44.8577 
835911778 1 8.07365e-05 3.71998e-05 9.10072e-06 160.434 586.214 -411.945 
1547847803 1 8.34602e-05 3.50775e-05 3.83034e-06 151.162 32.5492 265.046 
808027658 1 9.78549e-05 3.62151e-05 1.69807e-06 -115.301 -209.249 -187.312 
1994909928 1 9.49574e-05 3.73271e-05 7.40996e-06 -109.205 108.933 -34.4174 
2095257293 1 9.53742e-05 3.93323e-05 5.61624e-06 21.9004 -32.7484 136.586 
617104377 1 9.39522e-05 3.90513e-05 1.25319e-06 318.073 -202.861 139.557 
732045905 1 9.52656e-05 3.93118e-05 8.19165e-06 -234.587 201.075 -102.319 
225987624 1 9.83576e-05 3.4319e-05 6.53812e-06 302.781 230.375 -80.9325 
1711631132 1 9.71164e-05 3.50576e-05 5.96361e-08 434.487 -5.34163 -400.592 
638837936 1 9.18068e-05 3.85696e-05 6.7323e-07 139.896 -33.7943 162.764 
604492854 1 9.32906e-05 3.49476e-05 3.12705e-06 156.339 -27.8762 160.386 
723212298 1 9.90902e-05 3.17488e-05 6.28357e-06 -375.712 7.23238 301.586 
1315073935 1 2.53751e-07 4.69631e-05 1.29601e-06 -55.0456 364.699 -36.2061 
682629040 1 9.49164e-06 4.2285e-05 6.23015e-06 -90.0535 184.562 -5.7758 